 TITLE = "GAUGE_position"
 VARIABLES =  "N", "X", "Y", "D_TOL", "D_ACTUAL" 
 ZONE T= "Model_position" I =          160
       238  -0.9892   0.0000   0.0108   0.0108
      1078  -0.9466   0.0000   0.0034   0.0034
      2244  -0.8864  -0.0000   0.0136   0.0136
      2568  -0.8674  -0.0000   0.0174   0.0174
      3696  -0.8140  -0.0000   0.0140   0.0140
      5722  -0.7353  -0.0000   0.0147   0.0147
      6966  -0.6902  -0.0002   0.0098   0.0098
      8041  -0.6550   0.0027   0.0057   0.0057
      9312  -0.6040   0.0034   0.0053   0.0053
     10440  -0.5531  -0.0034   0.0046   0.0046
     11334  -0.5014  -0.0058   0.0060   0.0060
     11387  -0.4531  -0.0032   0.0045   0.0045
     11574  -0.3994   0.0002   0.0006   0.0006
     11581  -0.3445  -0.0046   0.0072   0.0072
     11678  -0.2969  -0.0048   0.0057   0.0057
     11702  -0.2415  -0.0001   0.0085   0.0085
     11091  -0.1945  -0.0000   0.0055   0.0055
      9060  -0.1489  -0.0000   0.0011   0.0011
      5290  -0.1006   0.0000   0.0006   0.0006
       298  -0.0514  -0.0027   0.0030   0.0030
     12553  -0.0004  -0.0043   0.0043   0.0043
     12550   0.0082  -0.0004   0.0018   0.0018
     12479   0.0181  -0.0000   0.0019   0.0019
     12243   0.0298   0.0018   0.0018   0.0018
     12031   0.0388   0.0020   0.0024   0.0024
       295   0.0514  -0.0027   0.0030   0.0030
      1803   0.0633   0.0000   0.0033   0.0033
      2093   0.0669   0.0000   0.0031   0.0031
      3223   0.0786   0.0000   0.0014   0.0014
      4373   0.0914   0.0000   0.0014   0.0014
      5289   0.1006   0.0000   0.0006   0.0006
      5593   0.1054   0.0000   0.0046   0.0046
      6835   0.1206   0.0000   0.0006   0.0006
      7787   0.1315   0.0000   0.0015   0.0015
      8101   0.1372   0.0000   0.0028   0.0028
      9059   0.1489   0.0000   0.0011   0.0011
      9345   0.1550   0.0000   0.0050   0.0050
     10194   0.1676   0.0000   0.0024   0.0024
     10371   0.1741   0.0000   0.0059   0.0059
     11003   0.1876   0.0000   0.0024   0.0024
     11090   0.1945   0.0000   0.0055   0.0055
     11477   0.2089   0.0000   0.0011   0.0011
     11499   0.2164   0.0000   0.0036   0.0036
     11694   0.2328   0.0000   0.0028   0.0028
     11701   0.2415   0.0001   0.0015   0.0015
     11701   0.2415   0.0001   0.0085   0.0085
     11718   0.2588   0.0008   0.0015   0.0015
     11714   0.2720  -0.0025   0.0032   0.0032
     11703   0.2805  -0.0007   0.0009   0.0009
     11679   0.2976  -0.0047   0.0090   0.0090
     11679   0.2976  -0.0047   0.0053   0.0053
     11673   0.3099  -0.0037   0.0037   0.0037
     11668   0.3219   0.0007   0.0020   0.0020
     11638   0.3296   0.0004   0.0006   0.0006
     11569   0.3443   0.0047   0.0064   0.0064
     11569   0.3443   0.0047   0.0074   0.0074
     11563   0.3606   0.0053   0.0054   0.0054
     11559   0.3780   0.0060   0.0100   0.0100
     11559   0.3780   0.0060   0.0064   0.0064
     11573   0.3994   0.0002   0.0094   0.0094
     11573   0.3994   0.0002   0.0006   0.0006
     11600   0.4096   0.0005   0.0006   0.0006
     11572   0.4286   0.0010   0.0087   0.0087
     11572   0.4286   0.0010   0.0017   0.0017
     11502   0.4375   0.0012   0.0027   0.0027
     11388   0.4532  -0.0031   0.0044   0.0044
     11388   0.4532  -0.0031   0.0074   0.0074
     11386   0.4748  -0.0044   0.0065   0.0065
     11386   0.4748  -0.0044   0.0068   0.0068
     11264   0.4859  -0.0115   0.0122   0.0122
     11376   0.5044   0.0015   0.0046   0.0046
     11376   0.5044   0.0015   0.0058   0.0058
     11271   0.5183   0.0043   0.0046   0.0046
     11270   0.5273  -0.0016   0.0031   0.0031
     11273   0.5406   0.0035   0.0036   0.0036
     11272   0.5506  -0.0026   0.0027   0.0027
     11262   0.5653   0.0035   0.0063   0.0063
     11261   0.5745  -0.0037   0.0058   0.0058
     11261   0.5745  -0.0037   0.0066   0.0066
     11260   0.5895  -0.0021   0.0022   0.0022
     11139   0.5992   0.0105   0.0105   0.0105
     11022   0.6154   0.0107   0.0119   0.0119
     11144   0.6220  -0.0018   0.0027   0.0027
     11147   0.6358   0.0001   0.0058   0.0058
     11147   0.6358   0.0001   0.0042   0.0042
     11146   0.6580  -0.0050   0.0094   0.0094
     11146   0.6580  -0.0050   0.0054   0.0054
     11012   0.6693  -0.0128   0.0128   0.0128
     11138   0.6910  -0.0003   0.0110   0.0110
     11138   0.6910  -0.0003   0.0010   0.0010
     11138   0.6910  -0.0003   0.0090   0.0090
     11015   0.7088  -0.0031   0.0033   0.0033
     11016   0.7180   0.0048   0.0052   0.0052
     11754   0.7350   0.0063   0.0081   0.0081
     11753   0.7452  -0.0035   0.0062   0.0062
     11753   0.7452  -0.0035   0.0059   0.0059
     11048   0.7612  -0.0011   0.0017   0.0017
     11048   0.7612  -0.0011   0.0089   0.0089
     10836   0.7839   0.0069   0.0079   0.0079
     10836   0.7839   0.0069   0.0092   0.0092
     11014   0.8132  -0.0006   0.0132   0.0132
     11014   0.8132  -0.0006   0.0032   0.0032
     11047   0.8264  -0.0005   0.0064   0.0064
     11047   0.8264  -0.0005   0.0036   0.0036
     10835   0.8475   0.0068   0.0101   0.0101
     10835   0.8475   0.0068   0.0073   0.0073
     10835   0.8475   0.0068   0.0143   0.0143
     11007   0.8785  -0.0006   0.0085   0.0085
     11007   0.8785  -0.0006   0.0016   0.0016
     11096   0.8938  -0.0003   0.0038   0.0038
     11096   0.8938  -0.0003   0.0062   0.0062
     11009   0.9214  -0.0002   0.0114   0.0114
     11009   0.9214  -0.0002   0.0014   0.0014
     11008   0.9366  -0.0003   0.0066   0.0066
     11008   0.9366  -0.0003   0.0034   0.0034
     11008   0.9366  -0.0003   0.0134   0.0134
     10829   0.9704   0.0079   0.0130   0.0130
     10829   0.9704   0.0079   0.0079   0.0079
     10829   0.9704   0.0079   0.0124   0.0124
     10764   0.9989   0.0174   0.0195   0.0195
     10833   1.0086   0.0060   0.0105   0.0105
     10830   1.0399   0.0074   0.0125   0.0125
     10827   1.1098   0.0069   0.0120   0.0120
     10832   1.1435   0.0069   0.0095   0.0095
     11748   1.1973   0.0058   0.0063   0.0063
     11749   1.2563  -0.0051   0.0081   0.0081
     11751   1.2944  -0.0063   0.0084   0.0084
     10216   1.3470   0.0174   0.0176   0.0176
     10429   1.4096   0.0075   0.0122   0.0122
     10436   1.4476  -0.0071   0.0075   0.0075
     11740   1.5018   0.0067   0.0069   0.0069
     11742   1.5431   0.0046   0.0083   0.0083
     11743   1.6013  -0.0048   0.0050   0.0050
     11745   1.6416  -0.0046   0.0096   0.0096
     10226   1.7039   0.0022   0.0044   0.0044
     10200   1.7421  -0.0026   0.0083   0.0083
      9939   1.7914   0.0081   0.0118   0.0118
      9940   1.8340   0.0081   0.0180   0.0180
      9942   1.9147   0.0086   0.0170   0.0170
      9949   1.9548  -0.0081   0.0094   0.0094
      9948   1.9949  -0.0073   0.0089   0.0089
      9723   2.0547  -0.0141   0.0148   0.0148
      9946   2.1052   0.0030   0.0060   0.0060
     11727   2.1427  -0.0042   0.0084   0.0084
     11732   2.2073   0.0048   0.0087   0.0087
     11734   2.2475   0.0046   0.0053   0.0053
     11735   2.3051  -0.0049   0.0071   0.0071
     11737   2.3452  -0.0048   0.0068   0.0068
      9732   2.4077   0.0042   0.0088   0.0088
      9730   2.4470   0.0042   0.0052   0.0052
      9733   2.4968  -0.0060   0.0068   0.0068
      8511   2.5517  -0.0002   0.0017   0.0017
      7247   2.6103  -0.0000   0.0103   0.0103
      6013   2.6693  -0.0000   0.0193   0.0193
      5603   2.6892  -0.0000   0.0108   0.0108
      4401   2.7502  -0.0000   0.0002   0.0002
      3665   2.7918  -0.0000   0.0082   0.0082
      2541   2.8557  -0.0000   0.0057   0.0057
      1389   2.9214  -0.0000   0.0214   0.0214
       943   2.9437   0.0000   0.0063   0.0063
 ZONE T= "Gauge_position" I =          160
         1  -1.0000   0.0000   0.0108   0.0108
         2  -0.9500   0.0000   0.0034   0.0034
         3  -0.9000   0.0000   0.0136   0.0136
         4  -0.8500   0.0000   0.0174   0.0174
         5  -0.8000   0.0000   0.0140   0.0140
         6  -0.7500   0.0000   0.0147   0.0147
         7  -0.7000   0.0000   0.0098   0.0098
         8  -0.6500   0.0000   0.0057   0.0057
         9  -0.6000   0.0000   0.0053   0.0053
        10  -0.5500   0.0000   0.0046   0.0046
        11  -0.5000   0.0000   0.0060   0.0060
        12  -0.4500   0.0000   0.0045   0.0045
        13  -0.4000   0.0000   0.0006   0.0006
        14  -0.3500   0.0000   0.0072   0.0072
        15  -0.3000   0.0000   0.0057   0.0057
        16  -0.2500   0.0000   0.0085   0.0085
        17  -0.2000   0.0000   0.0055   0.0055
        18  -0.1500   0.0000   0.0011   0.0011
        19  -0.1000   0.0000   0.0006   0.0006
        20  -0.0500   0.0000   0.0030   0.0030
        21   0.0000   0.0000   0.0043   0.0043
        22   0.0100   0.0000   0.0018   0.0018
        23   0.0200   0.0000   0.0019   0.0019
        24   0.0300   0.0000   0.0018   0.0018
        25   0.0400   0.0000   0.0024   0.0024
        26   0.0500   0.0000   0.0030   0.0030
        27   0.0600   0.0000   0.0033   0.0033
        28   0.0700   0.0000   0.0031   0.0031
        29   0.0800   0.0000   0.0014   0.0014
        30   0.0900   0.0000   0.0014   0.0014
        31   0.1000   0.0000   0.0006   0.0006
        32   0.1100   0.0000   0.0046   0.0046
        33   0.1200   0.0000   0.0006   0.0006
        34   0.1300   0.0000   0.0015   0.0015
        35   0.1400   0.0000   0.0028   0.0028
        36   0.1500   0.0000   0.0011   0.0011
        37   0.1600   0.0000   0.0050   0.0050
        38   0.1700   0.0000   0.0024   0.0024
        39   0.1800   0.0000   0.0059   0.0059
        40   0.1900   0.0000   0.0024   0.0024
        41   0.2000   0.0000   0.0055   0.0055
        42   0.2100   0.0000   0.0011   0.0011
        43   0.2200   0.0000   0.0036   0.0036
        44   0.2300   0.0000   0.0028   0.0028
        45   0.2400   0.0000   0.0015   0.0015
        46   0.2500   0.0000   0.0085   0.0085
        47   0.2600   0.0000   0.0015   0.0015
        48   0.2700   0.0000   0.0032   0.0032
        49   0.2800   0.0000   0.0009   0.0009
        50   0.2900   0.0000   0.0090   0.0090
        51   0.3000   0.0000   0.0053   0.0053
        52   0.3100   0.0000   0.0037   0.0037
        53   0.3200   0.0000   0.0020   0.0020
        54   0.3300   0.0000   0.0006   0.0006
        55   0.3400   0.0000   0.0064   0.0064
        56   0.3500   0.0000   0.0074   0.0074
        57   0.3600   0.0000   0.0054   0.0054
        58   0.3700   0.0000   0.0100   0.0100
        59   0.3800   0.0000   0.0064   0.0064
        60   0.3900   0.0000   0.0094   0.0094
        61   0.4000   0.0000   0.0006   0.0006
        62   0.4100   0.0000   0.0006   0.0006
        63   0.4200   0.0000   0.0087   0.0087
        64   0.4300   0.0000   0.0017   0.0017
        65   0.4400   0.0000   0.0027   0.0027
        66   0.4500   0.0000   0.0044   0.0044
        67   0.4600   0.0000   0.0074   0.0074
        68   0.4700   0.0000   0.0065   0.0065
        69   0.4800   0.0000   0.0068   0.0068
        70   0.4900   0.0000   0.0122   0.0122
        71   0.5000   0.0000   0.0046   0.0046
        72   0.5100   0.0000   0.0058   0.0058
        73   0.5200   0.0000   0.0046   0.0046
        74   0.5300   0.0000   0.0031   0.0031
        75   0.5400   0.0000   0.0036   0.0036
        76   0.5500   0.0000   0.0027   0.0027
        77   0.5600   0.0000   0.0063   0.0063
        78   0.5700   0.0000   0.0058   0.0058
        79   0.5800   0.0000   0.0066   0.0066
        80   0.5900   0.0000   0.0022   0.0022
        81   0.6000   0.0000   0.0105   0.0105
        82   0.6100   0.0000   0.0119   0.0119
        83   0.6200   0.0000   0.0027   0.0027
        84   0.6300   0.0000   0.0058   0.0058
        85   0.6400   0.0000   0.0042   0.0042
        86   0.6500   0.0000   0.0094   0.0094
        87   0.6600   0.0000   0.0054   0.0054
        88   0.6700   0.0000   0.0128   0.0128
        89   0.6800   0.0000   0.0110   0.0110
        90   0.6900   0.0000   0.0010   0.0010
        91   0.7000   0.0000   0.0090   0.0090
        92   0.7100   0.0000   0.0033   0.0033
        93   0.7200   0.0000   0.0052   0.0052
        94   0.7300   0.0000   0.0081   0.0081
        95   0.7400   0.0000   0.0062   0.0062
        96   0.7500   0.0000   0.0059   0.0059
        97   0.7600   0.0000   0.0017   0.0017
        98   0.7700   0.0000   0.0089   0.0089
        99   0.7800   0.0000   0.0079   0.0079
       100   0.7900   0.0000   0.0092   0.0092
       101   0.8000   0.0000   0.0132   0.0132
       102   0.8100   0.0000   0.0032   0.0032
       103   0.8200   0.0000   0.0064   0.0064
       104   0.8300   0.0000   0.0036   0.0036
       105   0.8400   0.0000   0.0101   0.0101
       106   0.8500   0.0000   0.0073   0.0073
       107   0.8600   0.0000   0.0143   0.0143
       108   0.8700   0.0000   0.0085   0.0085
       109   0.8800   0.0000   0.0016   0.0016
       110   0.8900   0.0000   0.0038   0.0038
       111   0.9000   0.0000   0.0062   0.0062
       112   0.9100   0.0000   0.0114   0.0114
       113   0.9200   0.0000   0.0014   0.0014
       114   0.9300   0.0000   0.0066   0.0066
       115   0.9400   0.0000   0.0034   0.0034
       116   0.9500   0.0000   0.0134   0.0134
       117   0.9600   0.0000   0.0130   0.0130
       118   0.9700   0.0000   0.0079   0.0079
       119   0.9800   0.0000   0.0124   0.0124
       120   0.9900   0.0000   0.0195   0.0195
       121   1.0000   0.0000   0.0105   0.0105
       122   1.0500   0.0000   0.0125   0.0125
       123   1.1000   0.0000   0.0120   0.0120
       124   1.1500   0.0000   0.0095   0.0095
       125   1.2000   0.0000   0.0063   0.0063
       126   1.2500   0.0000   0.0081   0.0081
       127   1.3000   0.0000   0.0084   0.0084
       128   1.3500   0.0000   0.0176   0.0176
       129   1.4000   0.0000   0.0122   0.0122
       130   1.4500   0.0000   0.0075   0.0075
       131   1.5000   0.0000   0.0069   0.0069
       132   1.5500   0.0000   0.0083   0.0083
       133   1.6000   0.0000   0.0050   0.0050
       134   1.6500   0.0000   0.0096   0.0096
       135   1.7000   0.0000   0.0044   0.0044
       136   1.7500   0.0000   0.0083   0.0083
       137   1.8000   0.0000   0.0118   0.0118
       138   1.8500   0.0000   0.0180   0.0180
       139   1.9000   0.0000   0.0170   0.0170
       140   1.9500   0.0000   0.0094   0.0094
       141   2.0000   0.0000   0.0089   0.0089
       142   2.0500   0.0000   0.0148   0.0148
       143   2.1000   0.0000   0.0060   0.0060
       144   2.1500   0.0000   0.0084   0.0084
       145   2.2000   0.0000   0.0087   0.0087
       146   2.2500   0.0000   0.0053   0.0053
       147   2.3000   0.0000   0.0071   0.0071
       148   2.3500   0.0000   0.0068   0.0068
       149   2.4000   0.0000   0.0088   0.0088
       150   2.4500   0.0000   0.0052   0.0052
       151   2.5000   0.0000   0.0068   0.0068
       152   2.5500   0.0000   0.0017   0.0017
       153   2.6000   0.0000   0.0103   0.0103
       154   2.6500   0.0000   0.0193   0.0193
       155   2.7000   0.0000   0.0108   0.0108
       156   2.7500   0.0000   0.0002   0.0002
       157   2.8000   0.0000   0.0082   0.0082
       158   2.8500   0.0000   0.0057   0.0057
       159   2.9000   0.0000   0.0214   0.0214
       160   2.9500   0.0000   0.0063   0.0063
